                               Psi4 1.4a2.dev35

  ==> Input File <==

--------------------------------------------------------------------------
molecule h2o {
O	30.275	30.306	30.18
H	29.677	30.07	30.945
H	30.855	29.523	29.956
symmetry c1
no_reorient
no_com
}

set {
basis aug-cc-pvdz
dft_spherical_points 2702
dft_radial_points 89
scf_type df
}

energy('PBE')

--------------------------------------------------------------------------

    Molecular point group: c1

    Geometry (in Angstrom), charge = 0, multiplicity = 1:

       Center              X                  Y                   Z               Mass
    ------------   -----------------  -----------------  -----------------  -----------------
         O           30.275000000000    30.306000000000    30.180000000000    15.994914619570
         H           29.677000000000    30.070000000000    30.945000000000     1.007825032230
         H           30.855000000000    29.523000000000    29.956000000000     1.007825032230

  Charge       = 0
  Multiplicity = 1
  Basis Set: AUG-CC-PVDZ
    Blend: AUG-CC-PVDZ
  Basis Set: (AUG-CC-PVDZ AUX)
    Blend: AUG-CC-PVDZ-JKFIT

    Orbital Energies [Eh]
    ---------------------

    Doubly Occupied:

       1A    -18.782864     2A     -0.915677     3A     -0.480513
       4A     -0.332067     5A     -0.261632

  @DF-RKS Final Energy:   -76.35725093916255

   => Energetics <=

    Nuclear Repulsion Energy =              8.7948242502614846
    One-Electron Energy =                -122.1968250951971697
    Two-Electron Energy =                  46.2371652324169204
    DFT Exchange-Correlation Energy =      -9.1924153266437809
    Empirical Dispersion Energy =           0.0000000000000000
    VV10 Nonlocal Energy =                  0.0000000000000000
    Total Energy =                        -76.3572509391625545

  Dipole Moment: [D]
     X:    -0.0273      Y:    -1.5340      Z:     0.8146     Total:     1.7371

*** Psi4 exiting successfully. Buy a developer a beer!
