                               Psi4 1.3.2 release

  ==> Input File <==

--------------------------------------------------------------------------
molecule He {
He    30.00000000  30.00000000  30.00000000
symmetry c1
no_reorient
no_com
}

Chrgfield = QMMM()
#  q , x , y , z
Chrgfield.extern.addCharge(2.0, 33.0 , 30.0 , 30.0)
Chrgfield.extern.addCharge(-1.0, 25.9 , 25.0 , 30.0)
Chrgfield.extern.addCharge(-1.0, 36.1 , 35.0 , 30.0)
Chrgfield.extern.addCharge( 1.0, 45.9 , 30.0 , 30.0)
Chrgfield.extern.addCharge(-1.0, 20.1 , 35.0 , 30.0)
psi4.set_global_option_python('EXTERN', Chrgfield.extern)

set {
basis aug-cc-pvdz
dft_spherical_points 2702
dft_radial_points 89
scf_type df
}

energy('PBE')

--------------------------------------------------------------------------

    Molecular point group: c1
    Geometry (in Angstrom), charge = 0, multiplicity = 1:

       Center              X                  Y                   Z               Mass
    ------------   -----------------  -----------------  -----------------  -----------------
         HE          30.000000000000    30.000000000000    30.000000000000     4.002603254130

  Charge       = 0
  Multiplicity = 1
  Basis Set: AUG-CC-PVDZ
    Blend: AUG-CC-PVDZ
  Basis Set: (AUG-CC-PVDZ AUX)
    Blend: DEF2-QZVPP-JKFIT

    Orbital Energies [Eh]
    ---------------------

    Doubly Occupied:

       1A     -0.772016

  @DF-RKS Final Energy:    -2.89036922063159

   => Energetics <=

    Nuclear Repulsion Energy =              0.3788456921482009
    One-Electron Energy =                  -4.2445925270252101
    Two-Electron Energy =                   2.0163215889952797
    DFT Exchange-Correlation Energy =      -1.0409439747498588
    Empirical Dispersion Energy =           0.0000000000000000
    VV10 Nonlocal Energy =                  0.0000000000000000
    Total Energy =                         -2.8903692206315883

  Dipole Moment: [D]
     X:    -0.2566      Y:    -0.0046      Z:     0.0000     Total:     0.2566

*** Psi4 exiting successfully. Buy a developer a beer!
